COTH aggregate
   28
    1MOL      S    1  -0.304  -0.075  -0.126
    1MOL      S    2  -0.220  -0.176   0.181
    1MOL      S    3   0.342  -0.028  -0.053
    1MOL      C    4  -0.142  -0.064  -0.059
    1MOL      C    5  -0.124  -0.069   0.084
    1MOL      C    6  -0.171  -0.103   0.335
    1MOL      C    7  -0.075  -0.009   0.305
    1MOL      C    8  -0.049   0.016   0.169
    1MOL      C    9   0.030   0.127   0.125
    1MOL      C   10   0.011   0.256   0.181
    1MOL      C   11   0.099   0.353   0.129
    1MOL      C   12   0.121   0.125   0.031
    1MOL      C   13   0.166   0.008  -0.045
    1MOL      C   14   0.310  -0.163  -0.165
    1MOL      C   15   0.180  -0.168  -0.198
    1MOL      C   16   0.093  -0.067  -0.133
    1MOL      C   17  -0.047  -0.062  -0.163
    1MOL      C   18  -0.109  -0.087  -0.290
    1MOL      C   19  -0.248  -0.092  -0.290
    1MOL      H   20  -0.201  -0.148   0.413
    1MOL      H   21  -0.044   0.069   0.388
    1MOL      H   22  -0.057   0.288   0.258
    1MOL      H   23   0.097   0.463   0.139
    1MOL      H   24   0.396  -0.241  -0.180
    1MOL      H   25   0.138  -0.237  -0.267
    1MOL      H   26  -0.063  -0.093  -0.397
    1MOL      H   27  -0.325  -0.106  -0.375
    1MOL      S   28   0.197   0.281   0.003
   0.00000   0.00000   0.00000
