COTH aggregate from PyRAI2MD run_files
  924
    1COT     S1    1  -0.304  -0.075  -0.126
    1COT     S2    2  -0.220  -0.176   0.181
    1COT     S3    3   0.342  -0.028  -0.053
    1COT     C4    4  -0.142  -0.064  -0.059
    1COT     C5    5  -0.124  -0.069   0.084
    1COT     C6    6  -0.171  -0.103   0.335
    1COT     C7    7  -0.075  -0.009   0.305
    1COT     C8    8  -0.049   0.016   0.169
    1COT     C9    9   0.030   0.127   0.125
    1COT    C10   10   0.011   0.256   0.181
    1COT    C11   11   0.099   0.353   0.129
    1COT    C12   12   0.121   0.125   0.031
    1COT    C13   13   0.166   0.008  -0.045
    1COT    C14   14   0.310  -0.163  -0.165
    1COT    C15   15   0.180  -0.168  -0.198
    1COT    C16   16   0.093  -0.067  -0.133
    1COT    C17   17  -0.047  -0.062  -0.163
    1COT    C18   18  -0.109  -0.087  -0.290
    1COT    C19   19  -0.248  -0.092  -0.290
    1COT    H20   20  -0.201  -0.148   0.413
    1COT    H21   21  -0.044   0.069   0.388
    1COT    H22   22  -0.057   0.288   0.258
    1COT    H23   23   0.097   0.463   0.139
    1COT    H24   24   0.396  -0.241  -0.180
    1COT    H25   25   0.138  -0.237  -0.267
    1COT    H26   26  -0.063  -0.093  -0.397
    1COT    H27   27  -0.325  -0.106  -0.375
    1COT    S28   28   0.197   0.281   0.003
    2COT     S1   29  -0.392   0.623  -0.065
    2COT     S2   30  -0.314   0.437   0.181
    2COT     S3   31   0.258   0.585  -0.143
    2COT     C4   32  -0.225   0.596  -0.031
    2COT     C5   33  -0.193   0.543   0.101
    2COT     C6   34  -0.209   0.414   0.316
    2COT     C7   35  -0.100   0.492   0.301
    2COT     C8   36  -0.088   0.575   0.184
    2COT     C9   37   0.023   0.674   0.163
    2COT    C10   38   0.056   0.776   0.263
    2COT    C11   39   0.157   0.854   0.222
    2COT    C12   40   0.098   0.695   0.048
    2COT    C13   41   0.100   0.616  -0.074
    2COT    C14   42   0.188   0.512  -0.282
    2COT    C15   43   0.052   0.512  -0.280
    2COT    C16   44  -0.002   0.575  -0.162
    2COT    C17   45  -0.147   0.598  -0.146
    2COT    C18   46  -0.229   0.611  -0.262
    2COT    C19   47  -0.364   0.625  -0.233
    2COT    H20   48  -0.222   0.343   0.399
    2COT    H21   49  -0.017   0.496   0.373
    2COT    H22   50   0.008   0.769   0.364
    2COT    H23   51   0.207   0.940   0.274
    2COT    H24   52   0.254   0.469  -0.362
    2COT    H25   53  -0.004   0.454  -0.350
    2COT    H26   54  -0.191   0.602  -0.357
    2COT    H27   55  -0.436   0.633  -0.304
    2COT    S28   56   0.209   0.832   0.063
    3COT     S1   57   0.463  -0.492   0.445
    3COT     S2   58   0.245  -0.303   0.203
    3COT     S3   59  -0.109  -0.256   0.637
    3COT     C4   60   0.308  -0.417   0.448
    3COT     C5   61   0.272  -0.301   0.370
    3COT     C6   62   0.228  -0.138   0.199
    3COT     C7   63   0.237  -0.074   0.320
    3COT     C8   64   0.260  -0.173   0.425
    3COT     C9   65   0.252  -0.137   0.568
    3COT    C10   66   0.345  -0.057   0.638
    3COT    C11   67   0.311  -0.033   0.767
    3COT    C12   68   0.158  -0.183   0.660
    3COT    C13   69   0.057  -0.283   0.617
    3COT    C14   70  -0.143  -0.408   0.570
    3COT    C15   71  -0.035  -0.488   0.545
    3COT    C16   72   0.083  -0.414   0.578
    3COT    C17   73   0.221  -0.462   0.548
    3COT    C18   74   0.289  -0.567   0.617
    3COT    C19   75   0.412  -0.594   0.572
    3COT    H20   76   0.212  -0.085   0.105
    3COT    H21   77   0.234   0.028   0.336
    3COT    H22   78   0.428  -0.000   0.600
    3COT    H23   79   0.351   0.035   0.835
    3COT    H24   80  -0.253  -0.436   0.551
    3COT    H25   81  -0.038  -0.593   0.521
    3COT    H26   82   0.258  -0.609   0.707
    3COT    H27   83   0.487  -0.667   0.611
    3COT    S28   84   0.175  -0.119   0.822
    4COT     S1   85   0.681   0.259   0.584
    4COT     S2   86   0.559   0.012   0.369
    4COT     S3   87   0.053   0.262   0.502
    4COT     C4   88   0.519   0.229   0.543
    4COT     C5   89   0.491   0.164   0.413
    4COT     C6   90   0.499   0.039   0.210
    4COT     C7   91   0.429   0.149   0.191
    4COT     C8   92   0.437   0.230   0.307
    4COT     C9   93   0.376   0.363   0.321
    4COT    C10   94   0.428   0.478   0.258
    4COT    C11   95   0.355   0.585   0.290
    4COT    C12   96   0.275   0.395   0.410
    4COT    C13   97   0.218   0.298   0.508
    4COT    C14   98   0.059   0.214   0.668
    4COT    C15   99   0.184   0.219   0.720
    4COT    C16  100   0.281   0.263   0.625
    4COT    C17  101   0.427   0.270   0.640
    4COT    C18  102   0.502   0.306   0.759
    4COT    C19  103   0.635   0.310   0.740
    4COT    H20  104   0.510  -0.050   0.137
    4COT    H21  105   0.388   0.185   0.107
    4COT    H22  106   0.508   0.476   0.183
    4COT    H23  107   0.359   0.681   0.245
    4COT    H24  108  -0.041   0.188   0.711
    4COT    H25  109   0.216   0.188   0.825
    4COT    H26  110   0.464   0.325   0.857
    4COT    H27  111   0.717   0.350   0.814
    4COT    S28  112   0.227   0.562   0.400
    5COT     S1  113  -0.163   0.267  -0.215
    5COT     S2  114  -0.153   0.164  -0.509
    5COT     S3  115  -0.770   0.388  -0.437
    5COT     C4  116  -0.300   0.294  -0.320
    5COT     C5  117  -0.274   0.277  -0.461
    5COT     C6  118  -0.176   0.209  -0.672
    5COT     C7  119  -0.274   0.295  -0.693
    5COT     C8  120  -0.328   0.344  -0.570
    5COT     C9  121  -0.403   0.469  -0.551
    5COT    C10  122  -0.358   0.597  -0.601
    5COT    C11  123  -0.447   0.696  -0.593
    5COT    C12  124  -0.527   0.495  -0.495
    5COT    C13  125  -0.604   0.397  -0.419
    5COT    C14  126  -0.784   0.281  -0.307
    5COT    C15  127  -0.663   0.252  -0.251
    5COT    C16  128  -0.554   0.323  -0.311
    5COT    C17  129  -0.418   0.315  -0.253
    5COT    C18  130  -0.389   0.304  -0.112
    5COT    C19  131  -0.260   0.276  -0.077
    5COT    H20  132  -0.123   0.161  -0.748
    5COT    H21  133  -0.300   0.333  -0.793
    5COT    H22  134  -0.262   0.617  -0.645
    5COT    H23  135  -0.409   0.809  -0.602
    5COT    H24  136  -0.880   0.250  -0.288
    5COT    H25  137  -0.645   0.198  -0.169
    5COT    H26  138  -0.463   0.327  -0.029
    5COT    H27  139  -0.213   0.265   0.020
    5COT    S28  140  -0.589   0.655  -0.514
    6COT     S1  141  -0.153  -0.978  -0.249
    6COT     S2  142  -0.088  -0.970   0.091
    6COT     S3  143   0.254  -0.468  -0.136
    6COT     C4  144  -0.068  -0.858  -0.161
    6COT     C5  145  -0.082  -0.836  -0.019
    6COT     C6  146  -0.089  -0.859   0.227
    6COT     C7  147  -0.078  -0.729   0.184
    6COT     C8  148  -0.085  -0.709   0.041
    6COT     C9  149  -0.101  -0.580  -0.023
    6COT    C10  150  -0.223  -0.502  -0.008
    6COT    C11  151  -0.220  -0.390  -0.082
    6COT    C12  152  -0.017  -0.521  -0.113
    6COT    C13  153   0.115  -0.573  -0.145
    6COT    C14  154   0.338  -0.601  -0.205
    6COT    C15  155   0.270  -0.716  -0.227
    6COT    C16  156   0.136  -0.703  -0.182
    6COT    C17  157   0.031  -0.790  -0.233
    6COT    C18  158   0.022  -0.830  -0.370
    6COT    C19  159  -0.066  -0.934  -0.384
    6COT    H20  160  -0.095  -0.911   0.330
    6COT    H21  161  -0.092  -0.649   0.243
    6COT    H22  162  -0.297  -0.525   0.072
    6COT    H23  163  -0.306  -0.324  -0.111
    6COT    H24  164   0.445  -0.591  -0.210
    6COT    H25  165   0.327  -0.808  -0.260
    6COT    H26  166   0.076  -0.783  -0.454
    6COT    H27  167  -0.086  -0.986  -0.484
    6COT    S28  168  -0.071  -0.373  -0.178
    7COT     S1  169   0.799   0.197  -0.212
    7COT     S2  170   0.838   0.065  -0.510
    7COT     S3  171   0.245   0.312  -0.555
    7COT     C4  172   0.681   0.216  -0.339
    7COT     C5  173   0.730   0.194  -0.468
    7COT     C6  174   0.842   0.117  -0.673
    7COT     C7  175   0.765   0.224  -0.704
    7COT     C8  176   0.704   0.273  -0.578
    7COT     C9  177   0.635   0.401  -0.577
    7COT    C10  178   0.702   0.520  -0.620
    7COT    C11  179   0.619   0.627  -0.626
    7COT    C12  180   0.500   0.427  -0.556
    7COT    C13  181   0.404   0.333  -0.492
    7COT    C14  182   0.196   0.216  -0.424
    7COT    C15  183   0.302   0.191  -0.343
    7COT    C16  184   0.424   0.256  -0.379
    7COT    C17  185   0.551   0.242  -0.301
    7COT    C18  186   0.555   0.248  -0.156
    7COT    C19  187   0.679   0.238  -0.097
    7COT    H20  188   0.904   0.062  -0.748
    7COT    H21  189   0.757   0.285  -0.804
    7COT    H22  190   0.805   0.533  -0.636
    7COT    H23  191   0.643   0.738  -0.641
    7COT    H24  192   0.100   0.175  -0.428
    7COT    H25  193   0.300   0.130  -0.252
    7COT    H26  194   0.467   0.266  -0.096
    7COT    H27  195   0.691   0.223   0.009
    7COT    S28  196   0.460   0.590  -0.589
    8COT     S1  197  -1.177  -0.049   0.214
    8COT     S2  198  -0.963  -0.174   0.446
    8COT     S3  199  -0.580  -0.032  -0.047
    8COT     C4  200  -1.009  -0.045   0.199
    8COT     C5  201  -0.922  -0.068   0.319
    8COT     C6  202  -0.821  -0.138   0.531
    8COT     C7  203  -0.746  -0.042   0.475
    8COT     C8  204  -0.800   0.001   0.350
    8COT     C9  205  -0.749   0.118   0.276
    8COT    C10  206  -0.743   0.245   0.340
    8COT    C11  207  -0.719   0.348   0.255
    8COT    C12  208  -0.708   0.123   0.142
    8COT    C13  209  -0.715   0.008   0.051
    8COT    C14  210  -0.680  -0.137  -0.134
    8COT    C15  211  -0.807  -0.149  -0.091
    8COT    C16  212  -0.832  -0.058   0.020
    8COT    C17  213  -0.971  -0.039   0.065
    8COT    C18  214  -1.080  -0.040  -0.027
    8COT    C19  215  -1.197  -0.043   0.047
    8COT    H20  216  -0.823  -0.172   0.639
    8COT    H21  217  -0.650   0.004   0.519
    8COT    H22  218  -0.763   0.246   0.448
    8COT    H23  219  -0.721   0.458   0.272
    8COT    H24  220  -0.635  -0.197  -0.204
    8COT    H25  221  -0.881  -0.220  -0.131
    8COT    H26  222  -1.070  -0.042  -0.129
    8COT    H27  223  -1.293  -0.042   0.006
    8COT    S28  224  -0.690   0.288   0.100
    9COT     S1  225  -0.206  -0.496  -0.835
    9COT     S2  226  -0.021  -0.524  -0.566
    9COT     S3  227   0.409  -0.369  -0.997
    9COT     C4  228  -0.041  -0.449  -0.831
    9COT     C5  229   0.014  -0.420  -0.699
    9COT     C6  230   0.086  -0.443  -0.467
    9COT     C7  231   0.136  -0.331  -0.525
    9COT     C8  232   0.105  -0.314  -0.662
    9COT     C9  233   0.157  -0.206  -0.742
    9COT    C10  234   0.164  -0.067  -0.700
    9COT    C11  235   0.222   0.015  -0.787
    9COT    C12  236   0.217  -0.219  -0.870
    9COT    C13  237   0.247  -0.340  -0.944
    9COT    C14  238   0.369  -0.517  -1.064
    9COT    C15  239   0.239  -0.549  -1.051
    9COT    C16  240   0.163  -0.448  -0.982
    9COT    C17  241   0.019  -0.466  -0.955
    9COT    C18  242  -0.071  -0.514  -1.058
    9COT    C19  243  -0.193  -0.541  -0.998
    9COT    H20  244   0.111  -0.480  -0.365
    9COT    H21  245   0.189  -0.262  -0.475
    9COT    H22  246   0.110  -0.045  -0.603
    9COT    H23  247   0.240   0.127  -0.773
    9COT    H24  248   0.446  -0.583  -1.115
    9COT    H25  249   0.203  -0.637  -1.088
    9COT    H26  250  -0.035  -0.535  -1.158
    9COT    H27  251  -0.293  -0.585  -1.045
    9COT    S28  252   0.274  -0.069  -0.924
   10COT     S1  253  -0.365  -0.332  -0.572
   10COT     S2  254  -0.578  -0.455  -0.817
   10COT     S3  255  -0.959  -0.358  -0.298
   10COT     C4  256  -0.539  -0.353  -0.559
   10COT     C5  257  -0.617  -0.356  -0.682
   10COT     C6  258  -0.691  -0.371  -0.912
   10COT     C7  259  -0.763  -0.276  -0.845
   10COT     C8  260  -0.730  -0.277  -0.706
   10COT     C9  261  -0.788  -0.177  -0.615
   10COT    C10  262  -0.784  -0.040  -0.657
   10COT    C11  263  -0.821   0.042  -0.551
   10COT    C12  264  -0.823  -0.188  -0.482
   10COT    C13  265  -0.822  -0.306  -0.393
   10COT    C14  266  -0.875  -0.500  -0.247
   10COT    C15  267  -0.745  -0.506  -0.286
   10COT    C16  268  -0.712  -0.389  -0.367
   10COT    C17  269  -0.578  -0.376  -0.427
   10COT    C18  270  -0.465  -0.395  -0.347
   10COT    C19  271  -0.347  -0.381  -0.412
   10COT    H20  272  -0.708  -0.392  -1.009
   10COT    H21  273  -0.831  -0.206  -0.888
   10COT    H22  274  -0.752   0.003  -0.755
   10COT    H23  275  -0.831   0.154  -0.556
   10COT    H24  276  -0.921  -0.563  -0.174
   10COT    H25  277  -0.673  -0.583  -0.248
   10COT    H26  278  -0.478  -0.400  -0.240
   10COT    H27  279  -0.243  -0.376  -0.359
   10COT    S28  280  -0.859  -0.034  -0.406
   11COT     S1  281   0.635  -0.231  -0.024
   11COT     S2  282   0.780  -0.313   0.282
   11COT     S3  283   1.188   0.118  -0.026
   11COT     C4  284   0.796  -0.173   0.033
   11COT     C5  285   0.825  -0.177   0.176
   11COT     C6  286   0.839  -0.234   0.416
   11COT     C7  287   0.888  -0.111   0.390
   11COT     C8  288   0.878  -0.071   0.254
   11COT     C9  289   0.887   0.068   0.207
   11COT    C10  290   0.833   0.183   0.274
   11COT    C11  291   0.846   0.303   0.210
   11COT    C12  292   0.947   0.116   0.094
   11COT    C13  293   1.038   0.049   0.003
   11COT    C14  294   1.215   0.001  -0.145
   11COT    C15  295   1.115  -0.094  -0.161
   11COT    C16  296   1.008  -0.067  -0.065
   11COT    C17  297   0.874  -0.122  -0.069
   11COT    C18  298   0.805  -0.137  -0.195
   11COT    C19  299   0.681  -0.194  -0.176
   11COT    H20  300   0.852  -0.287   0.509
   11COT    H21  301   0.924  -0.043   0.468
   11COT    H22  302   0.786   0.171   0.363
   11COT    H23  303   0.789   0.388   0.239
   11COT    H24  304   1.307   0.006  -0.187
   11COT    H25  305   1.123  -0.170  -0.232
   11COT    H26  306   0.858  -0.099  -0.285
   11COT    H27  307   0.618  -0.219  -0.252
   11COT    S28  308   0.936   0.284   0.064
   12COT     S1  309  -0.247   0.145   0.816
   12COT     S2  310  -0.319   0.026   0.487
   12COT     S3  311  -0.883   0.242   0.693
   12COT     C4  312  -0.397   0.157   0.721
   12COT     C5  313  -0.405   0.145   0.572
   12COT     C6  314  -0.367   0.090   0.338
   12COT     C7  315  -0.452   0.194   0.347
   12COT     C8  316  -0.465   0.239   0.487
   12COT     C9  317  -0.538   0.362   0.531
   12COT    C10  318  -0.509   0.495   0.487
   12COT    C11  319  -0.596   0.585   0.539
   12COT    C12  320  -0.646   0.361   0.614
   12COT    C13  321  -0.712   0.252   0.683
   12COT    C14  322  -0.872   0.118   0.812
   12COT    C15  323  -0.744   0.088   0.841
   12COT    C16  324  -0.652   0.168   0.773
   12COT    C17  325  -0.505   0.166   0.807
   12COT    C18  326  -0.466   0.148   0.948
   12COT    C19  327  -0.333   0.152   0.962
   12COT    H20  328  -0.334   0.029   0.241
   12COT    H21  329  -0.493   0.258   0.267
   12COT    H22  330  -0.425   0.529   0.431
   12COT    H23  331  -0.589   0.703   0.519
   12COT    H24  332  -0.959   0.066   0.857
   12COT    H25  333  -0.710   0.012   0.916
   12COT    H26  334  -0.536   0.143   1.037
   12COT    H27  335  -0.285   0.154   1.066
   12COT    S28  336  -0.716   0.520   0.638
   13COT     S1  337   1.110  -0.218  -0.704
   13COT     S2  338   0.899  -0.214  -0.962
   13COT     S3  339   0.538  -0.409  -0.409
   13COT     C4  340   0.935  -0.250  -0.692
   13COT     C5  341   0.842  -0.217  -0.800
   13COT     C6  342   0.747  -0.161  -1.021
   13COT     C7  343   0.659  -0.146  -0.919
   13COT     C8  344   0.710  -0.172  -0.791
   13COT     C9  345   0.631  -0.127  -0.678
   13COT    C10  346   0.559  -0.003  -0.693
   13COT    C11  347   0.491   0.024  -0.582
   13COT    C12  348   0.602  -0.185  -0.556
   13COT    C13  349   0.650  -0.307  -0.497
   13COT    C14  350   0.653  -0.534  -0.399
   13COT    C15  351   0.770  -0.499  -0.453
   13COT    C16  352   0.774  -0.367  -0.510
   13COT    C17  353   0.897  -0.313  -0.571
   13COT    C18  354   1.019  -0.326  -0.495
   13COT    C19  355   1.136  -0.283  -0.546
   13COT    H20  356   0.727  -0.140  -1.118
   13COT    H21  357   0.560  -0.114  -0.939
   13COT    H22  358   0.545   0.051  -0.789
   13COT    H23  359   0.431   0.116  -0.579
   13COT    H24  360   0.627  -0.622  -0.345
   13COT    H25  361   0.863  -0.565  -0.449
   13COT    H26  362   1.007  -0.366  -0.390
   13COT    H27  363   1.238  -0.268  -0.502
   13COT    S28  364   0.497  -0.087  -0.457
   14COT     S1  365  -0.326  -0.676   0.578
   14COT     S2  366  -0.450  -0.479   0.295
   14COT     S3  367  -0.901  -0.430   0.750
   14COT     C4  368  -0.479  -0.601   0.546
   14COT     C5  369  -0.485  -0.480   0.462
   14COT     C6  370  -0.473  -0.310   0.285
   14COT     C7  371  -0.508  -0.259   0.406
   14COT     C8  372  -0.501  -0.352   0.512
   14COT     C9  373  -0.520  -0.324   0.655
   14COT    C10  374  -0.427  -0.231   0.721
   14COT    C11  375  -0.455  -0.219   0.856
   14COT    C12  376  -0.619  -0.355   0.740
   14COT    C13  377  -0.727  -0.453   0.710
   14COT    C14  378  -0.931  -0.597   0.730
   14COT    C15  379  -0.828  -0.667   0.677
   14COT    C16  380  -0.708  -0.585   0.666
   14COT    C17  381  -0.580  -0.645   0.631
   14COT    C18  382  -0.541  -0.766   0.698
   14COT    C19  383  -0.411  -0.791   0.677
   14COT    H20  384  -0.486  -0.270   0.189
   14COT    H21  385  -0.522  -0.149   0.430
   14COT    H22  386  -0.337  -0.182   0.674
   14COT    H23  387  -0.405  -0.143   0.927
   14COT    H24  388  -1.027  -0.650   0.751
   14COT    H25  389  -0.826  -0.772   0.652
   14COT    H26  390  -0.601  -0.825   0.773
   14COT    H27  391  -0.349  -0.861   0.732
   14COT    S28  392  -0.595  -0.294   0.906
   15COT     S1  393  -1.017  -0.946  -0.028
   15COT     S2  394  -0.797  -1.010   0.259
   15COT     S3  395  -0.437  -0.681  -0.072
   15COT     C4  396  -0.862  -0.878   0.011
   15COT     C5  397  -0.813  -0.871   0.151
   15COT     C6  398  -0.738  -0.912   0.387
   15COT     C7  399  -0.724  -0.782   0.344
   15COT     C8  400  -0.765  -0.759   0.211
   15COT     C9  401  -0.753  -0.628   0.144
   15COT    C10  402  -0.785  -0.510   0.217
   15COT    C11  403  -0.752  -0.393   0.152
   15COT    C12  404  -0.686  -0.597   0.028
   15COT    C13  405  -0.610  -0.688  -0.056
   15COT    C14  406  -0.428  -0.826  -0.160
   15COT    C15  407  -0.551  -0.875  -0.180
   15COT    C16  408  -0.656  -0.801  -0.119
   15COT    C17  409  -0.797  -0.853  -0.108
   15COT    C18  410  -0.878  -0.879  -0.227
   15COT    C19  411  -0.992  -0.941  -0.200
   15COT    H20  412  -0.711  -0.947   0.478
   15COT    H21  413  -0.669  -0.712   0.401
   15COT    H22  414  -0.837  -0.509   0.326
   15COT    H23  415  -0.761  -0.295   0.183
   15COT    H24  416  -0.345  -0.881  -0.200
   15COT    H25  417  -0.572  -0.973  -0.224
   15COT    H26  418  -0.833  -0.870  -0.326
   15COT    H27  419  -1.059  -0.992  -0.281
   15COT    S28  420  -0.696  -0.424  -0.006
   16COT     S1  421  -0.769   0.056  -1.018
   16COT     S2  422  -0.676   0.254  -0.764
   16COT     S3  423  -0.118   0.034  -0.929
   16COT     C4  424  -0.606   0.099  -0.981
   16COT     C5  425  -0.588   0.223  -0.914
   16COT     C6  426  -0.651   0.421  -0.784
   16COT     C7  427  -0.557   0.449  -0.881
   16COT     C8  428  -0.510   0.334  -0.949
   16COT     C9  429  -0.381   0.337  -1.019
   16COT    C10  430  -0.347   0.455  -1.097
   16COT    C11  431  -0.218   0.455  -1.138
   16COT    C12  432  -0.283   0.236  -1.029
   16COT    C13  433  -0.277   0.093  -0.988
   16COT    C14  434  -0.176  -0.120  -0.894
   16COT    C15  435  -0.312  -0.120  -0.916
   16COT    C16  436  -0.371  -0.004  -0.971
   16COT    C17  437  -0.519  -0.000  -1.013
   16COT    C18  438  -0.584  -0.112  -1.078
   16COT    C19  439  -0.719  -0.095  -1.078
   16COT    H20  440  -0.704   0.500  -0.726
   16COT    H21  441  -0.520   0.544  -0.907
   16COT    H22  442  -0.415   0.535  -1.119
   16COT    H23  443  -0.166   0.537  -1.191
   16COT    H24  444  -0.122  -0.210  -0.863
   16COT    H25  445  -0.371  -0.212  -0.919
   16COT    H26  446  -0.540  -0.206  -1.106
   16COT    H27  447  -0.792  -0.173  -1.113
   16COT    S28  448  -0.139   0.301  -1.099
   17COT     S1  449   0.628  -0.992   0.221
   17COT     S2  450   0.410  -1.225   0.008
   17COT     S3  451   0.024  -1.084   0.368
   17COT     C4  452   0.469  -1.069   0.229
   17COT     C5  453   0.388  -1.094   0.111
   17COT     C6  454   0.265  -1.179  -0.080
   17COT     C7  455   0.219  -1.055  -0.051
   17COT     C8  456   0.290  -1.009   0.065
   17COT     C9  457   0.248  -0.887   0.139
   17COT    C10  458   0.262  -0.752   0.102
   17COT    C11  459   0.252  -0.665   0.209
   17COT    C12  460   0.212  -0.898   0.273
   17COT    C13  461   0.183  -1.019   0.341
   17COT    C14  462   0.084  -1.214   0.461
   17COT    C15  463   0.221  -1.218   0.450
   17COT    C16  464   0.278  -1.108   0.385
   17COT    C17  465   0.423  -1.078   0.359
   17COT    C18  466   0.516  -1.033   0.451
   17COT    C19  467   0.628  -0.979   0.395
   17COT    H20  468   0.213  -1.250  -0.156
   17COT    H21  469   0.132  -1.014  -0.105
   17COT    H22  470   0.303  -0.731   0.004
   17COT    H23  471   0.260  -0.566   0.196
   17COT    H24  472   0.017  -1.270   0.526
   17COT    H25  473   0.274  -1.289   0.515
   17COT    H26  474   0.482  -1.028   0.558
   17COT    H27  475   0.707  -0.936   0.446
   17COT    S28  476   0.207  -0.747   0.356
   18COT     S1  477   0.769   0.821  -0.393
   18COT     S2  478   0.571   0.560  -0.261
   18COT     S3  479   1.113   0.296  -0.270
   18COT     C4  480   0.820   0.662  -0.345
   18COT     C5  481   0.743   0.592  -0.245
   18COT     C6  482   0.559   0.553  -0.086
   18COT     C7  483   0.679   0.553  -0.024
   18COT     C8  484   0.789   0.565  -0.116
   18COT     C9  485   0.927   0.577  -0.068
   18COT    C10  486   0.962   0.640   0.058
   18COT    C11  487   1.095   0.623   0.094
   18COT    C12  488   1.037   0.520  -0.130
   18COT    C13  489   1.045   0.453  -0.258
   18COT    C14  490   1.109   0.293  -0.445
   18COT    C15  491   1.044   0.403  -0.490
   18COT    C16  492   1.006   0.495  -0.385
   18COT    C17  493   0.936   0.624  -0.409
   18COT    C18  494   0.972   0.724  -0.504
   18COT    C19  495   0.886   0.825  -0.517
   18COT    H20  496   0.464   0.526  -0.038
   18COT    H21  497   0.696   0.536   0.083
   18COT    H22  498   0.891   0.688   0.123
   18COT    H23  499   1.149   0.655   0.188
   18COT    H24  500   1.146   0.218  -0.496
   18COT    H25  501   1.036   0.417  -0.600
   18COT    H26  502   1.070   0.720  -0.560
   18COT    H27  503   0.904   0.917  -0.578
   18COT    S28  504   1.180   0.529  -0.030
   19COT     S1  505   0.977  -0.441  -0.071
   19COT     S2  506   0.634  -0.556  -0.043
   19COT     S3  507   0.966  -1.062   0.159
   19COT     C4  508   0.913  -0.600  -0.008
   19COT     C5  509   0.777  -0.613   0.037
   19COT     C6  510   0.533  -0.576   0.099
   19COT     C7  511   0.599  -0.647   0.192
   19COT     C8  512   0.737  -0.660   0.163
   19COT     C9  513   0.822  -0.698   0.276
   19COT    C10  514   0.803  -0.646   0.407
   19COT    C11  515   0.886  -0.698   0.502
   19COT    C12  516   0.907  -0.808   0.273
   19COT    C13  517   0.954  -0.891   0.160
   19COT    C14  518   0.975  -1.067  -0.014
   19COT    C15  519   0.980  -0.946  -0.067
   19COT    C16  520   0.987  -0.840   0.034
   19COT    C17  521   1.008  -0.697  -0.006
   19COT    C18  522   1.125  -0.654  -0.074
   19COT    C19  523   1.120  -0.527  -0.117
   19COT    H20  524   0.427  -0.540   0.093
   19COT    H21  525   0.549  -0.695   0.282
   19COT    H22  526   0.735  -0.550   0.427
   19COT    H23  527   0.892  -0.652   0.601
   19COT    H24  528   0.975  -1.160  -0.079
   19COT    H25  529   0.975  -0.925  -0.174
   19COT    H26  530   1.208  -0.722  -0.079
   19COT    H27  531   1.202  -0.478  -0.158
   19COT    S28  532   0.977  -0.824   0.433
   20COT     S1  533   0.724  -0.812  -0.224
   20COT     S2  534   0.859  -0.839  -0.528
   20COT     S3  535   0.230  -1.028  -0.596
   20COT     C4  536   0.638  -0.869  -0.367
   20COT     C5  537   0.690  -0.837  -0.501
   20COT     C6  538   0.840  -0.797  -0.698
   20COT     C7  539   0.714  -0.780  -0.727
   20COT     C8  540   0.620  -0.794  -0.610
   20COT     C9  541   0.485  -0.733  -0.613
   20COT    C10  542   0.465  -0.600  -0.663
   20COT    C11  543   0.347  -0.548  -0.633
   20COT    C12  544   0.370  -0.787  -0.564
   20COT    C13  545   0.352  -0.925  -0.525
   20COT    C14  546   0.272  -1.162  -0.490
   20COT    C15  547   0.382  -1.131  -0.411
   20COT    C16  548   0.429  -0.995  -0.431
   20COT    C17  549   0.520  -0.933  -0.330
   20COT    C18  550   0.502  -0.926  -0.188
   20COT    C19  551   0.595  -0.855  -0.118
   20COT    H20  552   0.916  -0.788  -0.776
   20COT    H21  553   0.682  -0.731  -0.813
   20COT    H22  554   0.548  -0.547  -0.706
   20COT    H23  555   0.323  -0.449  -0.642
   20COT    H24  556   0.231  -1.264  -0.493
   20COT    H25  557   0.425  -1.195  -0.339
   20COT    H26  558   0.420  -0.972  -0.149
   20COT    H27  559   0.597  -0.841  -0.012
   20COT    S28  560   0.243  -0.660  -0.552
   21COT     S1  561   0.562  -0.400   1.077
   21COT     S2  562   0.534  -0.297   0.744
   21COT     S3  563   0.288   0.196   1.069
   21COT     C4  564   0.495  -0.239   1.019
   21COT     C5  565   0.542  -0.203   0.888
   21COT     C6  566   0.628  -0.177   0.652
   21COT     C7  567   0.657  -0.071   0.727
   21COT     C8  568   0.612  -0.086   0.862
   21COT     C9  569   0.644   0.026   0.956
   21COT    C10  570   0.770   0.093   0.950
   21COT    C11  571   0.788   0.200   1.028
   21COT    C12  572   0.558   0.099   1.034
   21COT    C13  573   0.415   0.071   1.064
   21COT    C14  574   0.168   0.085   1.105
   21COT    C15  575   0.215  -0.037   1.131
   21COT    C16  576   0.361  -0.045   1.116
   21COT    C17  577   0.430  -0.174   1.121
   21COT    C18  578   0.423  -0.260   1.234
   21COT    C19  579   0.484  -0.382   1.227
   21COT    H20  580   0.653  -0.197   0.544
   21COT    H21  581   0.713   0.015   0.692
   21COT    H22  582   0.845   0.057   0.878
   21COT    H23  583   0.889   0.260   1.033
   21COT    H24  584   0.065   0.109   1.101
   21COT    H25  585   0.143  -0.120   1.163
   21COT    H26  586   0.380  -0.211   1.323
   21COT    H27  587   0.505  -0.451   1.303
   21COT    S28  588   0.646   0.229   1.120
   22COT     S1  589  -0.199   0.465   0.721
   22COT     S2  590  -0.055   0.334   1.033
   22COT     S3  591   0.340   0.748   0.929
   22COT     C4  592  -0.063   0.516   0.819
   22COT     C5  593  -0.045   0.496   0.963
   22COT     C6  594   0.004   0.391   1.187
   22COT     C7  595   0.015   0.525   1.187
   22COT     C8  596  -0.011   0.584   1.060
   22COT     C9  597  -0.018   0.727   1.033
   22COT    C10  598  -0.115   0.814   1.099
   22COT    C11  599  -0.099   0.945   1.057
   22COT    C12  600   0.064   0.793   0.944
   22COT    C13  601   0.173   0.727   0.878
   22COT    C14  602   0.387   0.619   0.823
   22COT    C15  603   0.283   0.573   0.748
   22COT    C16  604   0.160   0.634   0.777
   22COT    C17  605   0.027   0.584   0.734
   22COT    C18  606  -0.020   0.608   0.600
   22COT    C19  607  -0.139   0.549   0.582
   22COT    H20  608   0.019   0.329   1.271
   22COT    H21  609   0.063   0.574   1.265
   22COT    H22  610  -0.188   0.782   1.169
   22COT    H23  611  -0.148   1.027   1.095
   22COT    H24  612   0.483   0.581   0.810
   22COT    H25  613   0.298   0.498   0.664
   22COT    H26  614   0.029   0.674   0.533
   22COT    H27  615  -0.195   0.559   0.489
   22COT    S28  616   0.021   0.962   0.936
   23COT     S1  617  -0.109   0.790  -1.046
   23COT     S2  618  -0.088   0.518  -0.810
   23COT     S3  619   0.516   0.606  -0.929
   23COT     C4  620   0.032   0.724  -0.968
   23COT     C5  621   0.022   0.649  -0.844
   23COT     C6  622  -0.036   0.514  -0.644
   23COT     C7  623   0.059   0.606  -0.616
   23COT     C8  624   0.104   0.670  -0.735
   23COT     C9  625   0.209   0.775  -0.731
   23COT    C10  626   0.193   0.876  -0.623
   23COT    C11  627   0.292   0.968  -0.615
   23COT    C12  628   0.328   0.789  -0.799
   23COT    C13  629   0.371   0.706  -0.911
   23COT    C14  630   0.464   0.540  -1.078
   23COT    C15  631   0.350   0.590  -1.113
   23COT    C16  632   0.286   0.687  -1.021
   23COT    C17  633   0.148   0.743  -1.045
   23COT    C18  634   0.117   0.808  -1.168
   23COT    C19  635  -0.014   0.831  -1.185
   23COT    H20  636  -0.082   0.445  -0.572
   23COT    H21  637   0.109   0.611  -0.524
   23COT    H22  638   0.119   0.863  -0.540
   23COT    H23  639   0.306   1.061  -0.546
   23COT    H24  640   0.529   0.468  -1.144
   23COT    H25  641   0.288   0.554  -1.205
   23COT    H26  642   0.195   0.838  -1.234
   23COT    H27  643  -0.055   0.882  -1.274
   23COT    S28  644   0.412   0.929  -0.736
   24COT     S1  645  -0.086   0.906  -0.084
   24COT     S2  646  -0.125   0.833  -0.447
   24COT     S3  647  -0.651   1.105  -0.350
   24COT     C4  648  -0.217   0.931  -0.202
   24COT     C5  649  -0.192   0.953  -0.344
   24COT     C6  650  -0.105   0.940  -0.584
   24COT     C7  651  -0.155   1.061  -0.555
   24COT     C8  652  -0.202   1.071  -0.414
   24COT     C9  653  -0.254   1.199  -0.356
   24COT    C10  654  -0.180   1.312  -0.322
   24COT    C11  655  -0.250   1.405  -0.258
   24COT    C12  656  -0.384   1.205  -0.311
   24COT    C13  657  -0.486   1.097  -0.293
   24COT    C14  658  -0.690   0.966  -0.249
   24COT    C15  659  -0.584   0.915  -0.188
   24COT    C16  660  -0.465   0.994  -0.207
   24COT    C17  661  -0.337   0.961  -0.138
   24COT    C18  662  -0.320   0.964   0.003
   24COT    C19  663  -0.192   0.939   0.046
   24COT    H20  664  -0.052   0.907  -0.673
   24COT    H21  665  -0.158   1.140  -0.636
   24COT    H22  666  -0.072   1.315  -0.331
   24COT    H23  667  -0.207   1.493  -0.206
   24COT    H24  668  -0.784   0.907  -0.260
   24COT    H25  669  -0.591   0.826  -0.119
   24COT    H26  670  -0.403   0.977   0.068
   24COT    H27  671  -0.160   0.943   0.145
   24COT    S28  672  -0.415   1.365  -0.241
   25COT     S1  673   0.771   0.970   0.420
   25COT     S2  674   0.596   0.800   0.122
   25COT     S3  675   0.133   1.032   0.460
   25COT     C4  676   0.600   0.947   0.371
   25COT     C5  677   0.557   0.931   0.233
   25COT     C6  678   0.512   0.882  -0.009
   25COT     C7  679   0.472   1.007   0.028
   25COT     C8  680   0.491   1.032   0.164
   25COT     C9  681   0.434   1.157   0.225
   25COT    C10  682   0.451   1.288   0.167
   25COT    C11  683   0.369   1.384   0.211
   25COT    C12  684   0.336   1.159   0.320
   25COT    C13  685   0.299   1.052   0.413
   25COT    C14  686   0.175   0.925   0.593
   25COT    C15  687   0.307   0.894   0.587
   25COT    C16  688   0.381   0.966   0.486
   25COT    C17  689   0.524   0.961   0.483
   25COT    C18  690   0.599   0.954   0.604
   25COT    C19  691   0.737   0.962   0.588
   25COT    H20  692   0.502   0.844  -0.105
   25COT    H21  693   0.418   1.078  -0.042
   25COT    H22  694   0.531   1.299   0.083
   25COT    H23  695   0.378   1.484   0.182
   25COT    H24  696   0.109   0.906   0.668
   25COT    H25  697   0.365   0.817   0.658
   25COT    H26  698   0.550   0.962   0.702
   25COT    H27  699   0.803   0.963   0.665
   25COT    S28  700   0.263   1.319   0.328
   26COT     S1  701   0.109   0.442  -1.293
   26COT     S2  702   0.140   0.362  -0.968
   26COT     S3  703   0.259  -0.195  -1.245
   26COT     C4  704   0.159   0.289  -1.224
   26COT     C5  705   0.220   0.281  -1.094
   26COT     C6  706   0.271   0.338  -0.859
   26COT     C7  707   0.365   0.259  -0.918
   26COT     C8  708   0.334   0.217  -1.056
   26COT     C9  709   0.427   0.148  -1.148
   26COT    C10  710   0.567   0.184  -1.140
   26COT    C11  711   0.648   0.103  -1.217
   26COT    C12  712   0.403   0.048  -1.235
   26COT    C13  713   0.278  -0.020  -1.255
   26COT    C14  714   0.090  -0.188  -1.268
   26COT    C15  715   0.052  -0.057  -1.286
   26COT    C16  716   0.156   0.038  -1.284
   26COT    C17  717   0.127   0.183  -1.307
   26COT    C18  718   0.063   0.234  -1.427
   26COT    C19  719   0.040   0.363  -1.434
   26COT    H20  720   0.261   0.362  -0.761
   26COT    H21  721   0.458   0.221  -0.873
   26COT    H22  722   0.605   0.262  -1.073
   26COT    H23  723   0.760   0.117  -1.229
   26COT    H24  724   0.024  -0.266  -1.270
   26COT    H25  725  -0.054  -0.025  -1.294
   26COT    H26  726   0.021   0.162  -1.491
   26COT    H27  727  -0.013   0.409  -1.518
   26COT    S28  728   0.551  -0.003  -1.309
   27COT     S1  729  -1.295   0.516  -0.023
   27COT     S2  730  -1.124   0.337   0.218
   27COT     S3  731  -0.663   0.660   0.011
   27COT     C4  732  -1.135   0.555   0.035
   27COT     C5  733  -1.091   0.501   0.164
   27COT     C6  734  -1.044   0.367   0.372
   27COT     C7  735  -0.987   0.490   0.373
   27COT     C8  736  -1.017   0.568   0.257
   27COT     C9  737  -0.985   0.708   0.252
   27COT    C10  738  -1.007   0.798   0.364
   27COT    C11  739  -0.934   0.914   0.354
   27COT    C12  740  -0.892   0.752   0.161
   27COT    C13  741  -0.839   0.690   0.043
   27COT    C14  742  -0.695   0.591  -0.141
   27COT    C15  743  -0.826   0.587  -0.166
   27COT    C16  744  -0.912   0.638  -0.062
   27COT    C17  745  -1.066   0.622  -0.061
   27COT    C18  746  -1.147   0.659  -0.175
   27COT    C19  747  -1.272   0.607  -0.171
   27COT    H20  748  -1.028   0.291   0.441
   27COT    H21  749  -0.917   0.529   0.443
   27COT    H22  750  -1.063   0.781   0.454
   27COT    H23  751  -0.936   0.991   0.418
   27COT    H24  752  -0.625   0.550  -0.221
   27COT    H25  753  -0.864   0.541  -0.266
   27COT    H26  754  -1.102   0.715  -0.253
   27COT    H27  755  -1.342   0.620  -0.247
   27COT    S28  756  -0.834   0.911   0.210
   28COT     S1  757  -0.095  -0.823   0.663
   28COT     S2  758  -0.294  -0.881   0.962
   28COT     S3  759   0.215  -0.595   1.187
   28COT     C4  760  -0.067  -0.771   0.827
   28COT     C5  761  -0.174  -0.755   0.928
   28COT     C6  762  -0.381  -0.782   1.065
   28COT     C7  763  -0.318  -0.662   1.078
   28COT     C8  764  -0.198  -0.645   1.008
   28COT     C9  765  -0.119  -0.520   0.992
   28COT    C10  766  -0.182  -0.398   0.939
   28COT    C11  767  -0.105  -0.289   0.955
   28COT    C12  768   0.015  -0.505   1.016
   28COT    C13  769   0.108  -0.609   1.047
   28COT    C14  770   0.295  -0.743   1.145
   28COT    C15  771   0.238  -0.801   1.037
   28COT    C16  772   0.132  -0.723   0.977
   28COT    C17  773   0.071  -0.765   0.847
   28COT    C18  774   0.147  -0.825   0.746
   28COT    C19  775   0.074  -0.864   0.641
   28COT    H20  776  -0.458  -0.823   1.121
   28COT    H21  777  -0.339  -0.589   1.158
   28COT    H22  778  -0.290  -0.384   0.902
   28COT    H23  779  -0.136  -0.186   0.931
   28COT    H24  780   0.374  -0.787   1.217
   28COT    H25  781   0.278  -0.886   0.994
   28COT    H26  782   0.249  -0.847   0.760
   28COT    H27  783   0.111  -0.901   0.552
   28COT    S28  784   0.047  -0.336   1.023
   29COT     S1  785  -0.159   0.989   0.530
   29COT     S2  786  -0.309   0.740   0.349
   29COT     S3  787  -0.771   0.894   0.733
   29COT     C4  788  -0.327   0.945   0.539
   29COT     C5  789  -0.385   0.871   0.428
   29COT     C6  790  -0.443   0.717   0.237
   29COT     C7  791  -0.538   0.806   0.259
   29COT     C8  792  -0.502   0.903   0.361
   29COT     C9  793  -0.593   1.017   0.396
   29COT    C10  794  -0.624   1.115   0.296
   29COT    C11  795  -0.718   1.200   0.335
   29COT    C12  796  -0.653   1.036   0.518
   29COT    C13  797  -0.636   0.956   0.641
   29COT    C14  798  -0.663   0.840   0.858
   29COT    C15  799  -0.533   0.869   0.828
   29COT    C16  800  -0.516   0.935   0.703
   29COT    C17  801  -0.385   0.981   0.657
   29COT    C18  802  -0.295   1.059   0.737
   29COT    C19  803  -0.168   1.071   0.681
   29COT    H20  804  -0.450   0.633   0.168
   29COT    H21  805  -0.634   0.819   0.203
   29COT    H22  806  -0.587   1.104   0.195
   29COT    H23  807  -0.761   1.271   0.276
   29COT    H24  808  -0.700   0.791   0.941
   29COT    H25  809  -0.459   0.850   0.893
   29COT    H26  810  -0.334   1.116   0.822
   29COT    H27  811  -0.089   1.124   0.714
   29COT    S28  812  -0.757   1.179   0.500
   30COT     S1  813   1.014   0.129   0.640
   30COT     S2  814   1.042   0.380   0.871
   30COT     S3  815   1.136   0.705   0.376
   30COT     C4  816   1.024   0.294   0.612
   30COT     C5  817   0.985   0.395   0.706
   30COT     C6  818   0.962   0.517   0.925
   30COT     C7  819   0.894   0.572   0.820
   30COT     C8  820   0.900   0.501   0.693
   30COT     C9  821   0.836   0.550   0.567
   30COT    C10  822   0.705   0.608   0.573
   30COT    C11  823   0.665   0.655   0.453
   30COT    C12  824   0.902   0.571   0.449
   30COT    C13  825   1.047   0.559   0.427
   30COT    C14  826   1.278   0.618   0.370
   30COT    C15  827   1.269   0.493   0.409
   30COT    C16  828   1.136   0.457   0.450
   30COT    C17  829   1.100   0.322   0.497
   30COT    C18  830   1.143   0.199   0.427
   30COT    C19  831   1.103   0.090   0.499
   30COT    H20  832   0.961   0.551   1.022
   30COT    H21  833   0.844   0.665   0.826
   30COT    H22  834   0.642   0.617   0.661
   30COT    H23  835   0.571   0.694   0.428
   30COT    H24  836   1.372   0.667   0.345
   30COT    H25  837   1.353   0.410   0.434
   30COT    H26  838   1.203   0.188   0.342
   30COT    H27  839   1.123  -0.003   0.475
   30COT    S28  840   0.795   0.637   0.333
   31COT     S1  841  -0.113  -1.308  -0.061
   31COT     S2  842  -0.444  -1.339  -0.086
   31COT     S3  843  -0.346  -1.237   0.544
   31COT     C4  844  -0.226  -1.282   0.074
   31COT     C5  845  -0.366  -1.257   0.048
   31COT     C6  846  -0.592  -1.245  -0.075
   31COT     C7  847  -0.581  -1.156   0.026
   31COT     C8  848  -0.457  -1.166   0.096
   31COT     C9  849  -0.430  -1.063   0.201
   31COT    C10  850  -0.469  -0.919   0.186
   31COT    C11  851  -0.436  -0.838   0.285
   31COT    C12  852  -0.370  -1.079   0.324
   31COT    C13  853  -0.311  -1.198   0.380
   31COT    C14  854  -0.237  -1.363   0.553
   31COT    C15  855  -0.187  -1.383   0.427
   31COT    C16  856  -0.232  -1.291   0.322
   31COT    C17  857  -0.163  -1.293   0.193
   31COT    C18  858  -0.022  -1.316   0.175
   31COT    C19  859   0.022  -1.326   0.047
   31COT    H20  860  -0.688  -1.257  -0.130
   31COT    H21  861  -0.643  -1.086   0.055
   31COT    H22  862  -0.515  -0.886   0.096
   31COT    H23  863  -0.460  -0.721   0.296
   31COT    H24  864  -0.215  -1.407   0.644
   31COT    H25  865  -0.109  -1.449   0.406
   31COT    H26  866   0.048  -1.319   0.257
   31COT    H27  867   0.130  -1.343   0.011
   31COT    S28  868  -0.374  -0.930   0.415
   32COT     S1  869   0.681   1.296  -0.295
   32COT     S2  870   0.429   1.302  -0.573
   32COT     S3  871   0.213   0.863  -0.276
   32COT     C4  872   0.527   1.217  -0.332
   32COT     C5  873   0.415   1.268  -0.407
   32COT     C6  874   0.260   1.344  -0.590
   32COT     C7  875   0.200   1.338  -0.471
   32COT     C8  876   0.286   1.301  -0.361
   32COT     C9  877   0.229   1.262  -0.231
   32COT    C10  878   0.142   1.343  -0.154
   32COT    C11  879   0.101   1.285  -0.037
   32COT    C12  880   0.229   1.130  -0.187
   32COT    C13  881   0.290   1.014  -0.251
   32COT    C14  882   0.353   0.789  -0.352
   32COT    C15  883   0.456   0.878  -0.356
   32COT    C16  884   0.424   1.000  -0.287
   32COT    C17  885   0.532   1.098  -0.266
   32COT    C18  886   0.659   1.068  -0.199
   32COT    C19  887   0.747   1.170  -0.195
   32COT    H20  888   0.216   1.361  -0.679
   32COT    H21  889   0.093   1.356  -0.462
   32COT    H22  890   0.118   1.439  -0.186
   32COT    H23  891   0.049   1.332   0.047
   32COT    H24  892   0.356   0.687  -0.388
   32COT    H25  893   0.546   0.851  -0.406
   32COT    H26  894   0.670   0.982  -0.142
   32COT    H27  895   0.842   1.173  -0.154
   32COT    S28  896   0.150   1.121  -0.027
   33COT     S1  897  -0.049  -1.259  -0.534
   33COT     S2  898  -0.166  -1.179  -0.841
   33COT     S3  899  -0.658  -1.043  -0.454
   33COT     C4  900  -0.199  -1.172  -0.566
   33COT     C5  901  -0.223  -1.117  -0.693
   33COT     C6  902  -0.242  -1.062  -0.949
   33COT     C7  903  -0.304  -0.974  -0.868
   33COT     C8  904  -0.293  -1.001  -0.728
   33COT     C9  905  -0.335  -0.897  -0.634
   33COT    C10  906  -0.277  -0.765  -0.643
   33COT    C11  907  -0.304  -0.684  -0.540
   33COT    C12  908  -0.416  -0.910  -0.525
   33COT    C13  909  -0.486  -1.031  -0.487
   33COT    C14  910  -0.650  -1.210  -0.404
   33COT    C15  911  -0.523  -1.257  -0.412
   33COT    C16  912  -0.427  -1.153  -0.451
   33COT    C17  913  -0.280  -1.184  -0.453
   33COT    C18  914  -0.218  -1.254  -0.347
   33COT    C19  915  -0.093  -1.298  -0.370
   33COT    H20  916  -0.230  -1.046  -1.059
   33COT    H21  917  -0.331  -0.877  -0.911
   33COT    H22  918  -0.219  -0.736  -0.736
   33COT    H23  919  -0.268  -0.592  -0.526
   33COT    H24  920  -0.738  -1.273  -0.366
   33COT    H25  921  -0.499  -1.352  -0.384
   33COT    H26  922  -0.281  -1.277  -0.262
   33COT    H27  923  -0.031  -1.338  -0.303
   33COT    S28  924  -0.410  -0.759  -0.431
   4.00000   4.00000   4.00000
