; COT_GMX.top created by acpype (v: 2023.10.27) on Thu May 21 15:29:47 2026

[ defaults ]
; nbfunc        comb-rule       gen-pairs       fudgeLJ fudgeQQ
1               2               yes             0.5     0.8333333333

[ atomtypes ]
;name   bond_type     mass     charge   ptype   sigma         epsilon       Amb
 ss       ss          0.00000  0.00000   A     3.53241e-01   1.18156e+00 ; 1.98  0.2824
 cc       cc          0.00000  0.00000   A     3.31521e-01   4.13379e-01 ; 1.86  0.0988
 cd       cd          0.00000  0.00000   A     3.31521e-01   4.13379e-01 ; 1.86  0.0988
 h4       h4          0.00000  0.00000   A     2.53639e-01   6.73624e-02 ; 1.42  0.0161
 ha       ha          0.00000  0.00000   A     2.62548e-01   6.73624e-02 ; 1.47  0.0161

[ moleculetype ]
;name            nrexcl
 COT              3

[ atoms ]
;   nr  type  resi  res  atom  cgnr     charge      mass       ; qtot   bond_type
     1   ss     1   COT    S1    1     0.022200     32.06000 ; qtot 0.022
     2   ss     1   COT    S2    2     0.022200     32.06000 ; qtot 0.044
     3   ss     1   COT    S3    3     0.022200     32.06000 ; qtot 0.067
     4   cc     1   COT    C4    4    -0.019100     12.01000 ; qtot 0.048
     5   cc     1   COT    C5    5    -0.019100     12.01000 ; qtot 0.028
     6   cc     1   COT    C6    6    -0.170100     12.01000 ; qtot -0.142
     7   cd     1   COT    C7    7    -0.141000     12.01000 ; qtot -0.283
     8   cd     1   COT    C8    8    -0.021000     12.01000 ; qtot -0.304
     9   cd     1   COT    C9    9    -0.021000     12.01000 ; qtot -0.325
    10   cd     1   COT   C10   10    -0.141000     12.01000 ; qtot -0.466
    11   cc     1   COT   C11   11    -0.170100     12.01000 ; qtot -0.636
    12   cc     1   COT   C12   12    -0.019100     12.01000 ; qtot -0.655
    13   cc     1   COT   C13   13    -0.019100     12.01000 ; qtot -0.674
    14   cc     1   COT   C14   14    -0.170100     12.01000 ; qtot -0.844
    15   cd     1   COT   C15   15    -0.141000     12.01000 ; qtot -0.985
    16   cd     1   COT   C16   16    -0.021000     12.01000 ; qtot -1.006
    17   cd     1   COT   C17   17    -0.021000     12.01000 ; qtot -1.027
    18   cd     1   COT   C18   18    -0.141000     12.01000 ; qtot -1.168
    19   cc     1   COT   C19   19    -0.170100     12.01000 ; qtot -1.338
    20   h4     1   COT   H20   20     0.172000      1.00800 ; qtot -1.166
    21   ha     1   COT   H21   21     0.157000      1.00800 ; qtot -1.009
    22   ha     1   COT   H22   22     0.157000      1.00800 ; qtot -0.852
    23   h4     1   COT   H23   23     0.172000      1.00800 ; qtot -0.680
    24   h4     1   COT   H24   24     0.172000      1.00800 ; qtot -0.508
    25   ha     1   COT   H25   25     0.157000      1.00800 ; qtot -0.351
    26   ha     1   COT   H26   26     0.157000      1.00800 ; qtot -0.194
    27   h4     1   COT   H27   27     0.172000      1.00800 ; qtot -0.022
    28   ss     1   COT   S28   28     0.022200     32.06000 ; qtot -0.000

[ bonds ]
;   ai     aj funct   r             k
     1      4   1    1.7538e-01    1.9385e+05 ;     S1 - C4    
     1     19   1    1.7538e-01    1.9385e+05 ;     S1 - C19   
     2      5   1    1.7538e-01    1.9385e+05 ;     S2 - C5    
     2      6   1    1.7538e-01    1.9385e+05 ;     S2 - C6    
     3     13   1    1.7538e-01    1.9385e+05 ;     S3 - C13   
     3     14   1    1.7538e-01    1.9385e+05 ;     S3 - C14   
     4      5   1    1.4274e-01    2.6947e+05 ;     C4 - C5    
     4     17   1    1.3730e-01    3.2321e+05 ;     C4 - C17   
     5      8   1    1.3730e-01    3.2321e+05 ;     C5 - C8    
     6      7   1    1.3730e-01    3.2321e+05 ;     C6 - C7    
     6     20   1    1.0809e-01    3.0854e+05 ;     C6 - H20   
     7      8   1    1.4279e-01    2.6902e+05 ;     C7 - C8    
     7     21   1    1.0835e-01    3.0510e+05 ;     C7 - H21   
     8      9   1    1.4279e-01    2.6902e+05 ;     C8 - C9    
     9     10   1    1.4279e-01    2.6902e+05 ;     C9 - C10   
     9     12   1    1.3730e-01    3.2321e+05 ;     C9 - C12   
    10     11   1    1.3730e-01    3.2321e+05 ;    C10 - C11   
    10     22   1    1.0835e-01    3.0510e+05 ;    C10 - H22   
    11     23   1    1.0809e-01    3.0854e+05 ;    C11 - H23   
    11     28   1    1.7538e-01    1.9385e+05 ;    C11 - S28   
    12     13   1    1.4274e-01    2.6947e+05 ;    C12 - C13   
    12     28   1    1.7538e-01    1.9385e+05 ;    C12 - S28   
    13     16   1    1.3730e-01    3.2321e+05 ;    C13 - C16   
    14     15   1    1.3730e-01    3.2321e+05 ;    C14 - C15   
    14     24   1    1.0809e-01    3.0854e+05 ;    C14 - H24   
    15     16   1    1.4279e-01    2.6902e+05 ;    C15 - C16   
    15     25   1    1.0835e-01    3.0510e+05 ;    C15 - H25   
    16     17   1    1.4279e-01    2.6902e+05 ;    C16 - C17   
    17     18   1    1.4279e-01    2.6902e+05 ;    C17 - C18   
    18     19   1    1.3730e-01    3.2321e+05 ;    C18 - C19   
    18     26   1    1.0835e-01    3.0510e+05 ;    C18 - H26   
    19     27   1    1.0809e-01    3.0854e+05 ;    C19 - H27   

[ pairs ]
;   ai     aj    funct
     1      2      1 ;     S1 - S2    
     1      8      1 ;     S1 - C8    
     1     16      1 ;     S1 - C16   
     1     26      1 ;     S1 - H26   
     2      9      1 ;     S2 - C9    
     2     17      1 ;     S2 - C17   
     2     21      1 ;     S2 - H21   
     3      9      1 ;     S3 - C9    
     3     17      1 ;     S3 - C17   
     3     25      1 ;     S3 - H25   
     3     28      1 ;     S3 - S28   
     4      6      1 ;     C4 - C6    
     4      7      1 ;     C4 - C7    
     4      9      1 ;     C4 - C9    
     4     13      1 ;     C4 - C13   
     4     15      1 ;     C4 - C15   
     4     26      1 ;     C4 - H26   
     4     27      1 ;     C4 - H27   
     5     10      1 ;     C5 - C10   
     5     12      1 ;     C5 - C12   
     5     16      1 ;     C5 - C16   
     5     18      1 ;     C5 - C18   
     5     20      1 ;     C5 - H20   
     5     21      1 ;     C5 - H21   
     6      9      1 ;     C6 - C9    
     7     10      1 ;     C7 - C10   
     7     12      1 ;     C7 - C12   
     8     11      1 ;     C8 - C11   
     8     13      1 ;     C8 - C13   
     8     17      1 ;     C8 - C17   
     8     20      1 ;     C8 - H20   
     8     22      1 ;     C8 - H22   
     8     28      1 ;     C8 - S28   
     9     16      1 ;     C9 - C16   
     9     21      1 ;     C9 - H21   
     9     23      1 ;     C9 - H23   
    10     13      1 ;    C10 - C13   
    11     13      1 ;    C11 - C13   
    12     14      1 ;    C12 - C14   
    12     15      1 ;    C12 - C15   
    12     17      1 ;    C12 - C17   
    12     22      1 ;    C12 - H22   
    12     23      1 ;    C12 - H23   
    13     18      1 ;    C13 - C18   
    13     24      1 ;    C13 - H24   
    13     25      1 ;    C13 - H25   
    14     17      1 ;    C14 - C17   
    15     18      1 ;    C15 - C18   
    16     19      1 ;    C16 - C19   
    16     24      1 ;    C16 - H24   
    16     26      1 ;    C16 - H26   
    16     28      1 ;    C16 - S28   
    17     25      1 ;    C17 - H25   
    17     27      1 ;    C17 - H27   
    19      5      1 ;    C19 - C5    
    20     21      1 ;    H20 - H21   
    22     23      1 ;    H22 - H23   
    22     28      1 ;    H22 - S28   
    24     25      1 ;    H24 - H25   
    26     27      1 ;    H26 - H27   

[ angles ]
;   ai     aj     ak    funct   theta         cth
     1      4      5      1    1.2134e+02    5.2995e+02 ;     S1 - C4     - C5    
     1      4     17      1    1.1155e+02    5.5748e+02 ;     S1 - C4     - C17   
     1     19     18      1    1.1155e+02    5.5748e+02 ;     S1 - C19    - C18   
     1     19     27      1    1.2015e+02    3.5238e+02 ;     S1 - C19    - H27   
     2      5      4      1    1.2134e+02    5.2995e+02 ;     S2 - C5     - C4    
     2      5      8      1    1.1155e+02    5.5748e+02 ;     S2 - C5     - C8    
     2      6      7      1    1.1155e+02    5.5748e+02 ;     S2 - C6     - C7    
     2      6     20      1    1.2015e+02    3.5238e+02 ;     S2 - C6     - H20   
     3     13     12      1    1.2134e+02    5.2995e+02 ;     S3 - C13    - C12   
     3     13     16      1    1.1155e+02    5.5748e+02 ;     S3 - C13    - C16   
     3     14     15      1    1.1155e+02    5.5748e+02 ;     S3 - C14    - C15   
     3     14     24      1    1.2015e+02    3.5238e+02 ;     S3 - C14    - H24   
     4      1     19      1    9.0360e+01    8.5471e+02 ;     C4 - S1     - C19   
     4      5      8      1    1.1919e+02    5.3363e+02 ;     C4 - C5     - C8    
     4     17     16      1    1.1621e+02    5.4032e+02 ;     C4 - C17    - C16   
     4     17     18      1    1.1621e+02    5.4032e+02 ;     C4 - C17    - C18   
     5      2      6      1    9.0360e+01    8.5471e+02 ;     C5 - S2     - C6    
     5      4     17      1    1.1919e+02    5.3363e+02 ;     C5 - C4     - C17   
     5      8      7      1    1.1621e+02    5.4032e+02 ;     C5 - C8     - C7    
     5      8      9      1    1.1621e+02    5.4032e+02 ;     C5 - C8     - C9    
     6      7      8      1    1.1621e+02    5.4032e+02 ;     C6 - C7     - C8    
     6      7     21      1    1.2170e+02    3.7865e+02 ;     C6 - C7     - H21   
     7      6     20      1    1.2911e+02    3.6777e+02 ;     C7 - C6     - H20   
     7      8      9      1    1.2001e+02    5.2191e+02 ;     C7 - C8     - C9    
     8      7     21      1    1.2185e+02    3.6652e+02 ;     C8 - C7     - H21   
     8      9     10      1    1.2001e+02    5.2191e+02 ;     C8 - C9     - C10   
     8      9     12      1    1.1621e+02    5.4032e+02 ;     C8 - C9     - C12   
     9     10     11      1    1.1621e+02    5.4032e+02 ;     C9 - C10    - C11   
     9     10     22      1    1.2185e+02    3.6652e+02 ;     C9 - C10    - H22   
     9     12     13      1    1.1919e+02    5.3363e+02 ;     C9 - C12    - C13   
     9     12     28      1    1.1155e+02    5.5748e+02 ;     C9 - C12    - S28   
    10      9     12      1    1.1621e+02    5.4032e+02 ;    C10 - C9     - C12   
    10     11     23      1    1.2911e+02    3.6777e+02 ;    C10 - C11    - H23   
    10     11     28      1    1.1155e+02    5.5748e+02 ;    C10 - C11    - S28   
    11     10     22      1    1.2170e+02    3.7865e+02 ;    C11 - C10    - H22   
    11     28     12      1    9.0360e+01    8.5471e+02 ;    C11 - S28    - C12   
    12     13     16      1    1.1919e+02    5.3363e+02 ;    C12 - C13    - C16   
    13      3     14      1    9.0360e+01    8.5471e+02 ;    C13 - S3     - C14   
    13     12     28      1    1.2134e+02    5.2995e+02 ;    C13 - C12    - S28   
    13     16     15      1    1.1621e+02    5.4032e+02 ;    C13 - C16    - C15   
    13     16     17      1    1.1621e+02    5.4032e+02 ;    C13 - C16    - C17   
    14     15     16      1    1.1621e+02    5.4032e+02 ;    C14 - C15    - C16   
    14     15     25      1    1.2170e+02    3.7865e+02 ;    C14 - C15    - H25   
    15     14     24      1    1.2911e+02    3.6777e+02 ;    C15 - C14    - H24   
    15     16     17      1    1.2001e+02    5.2191e+02 ;    C15 - C16    - C17   
    16     15     25      1    1.2185e+02    3.6652e+02 ;    C16 - C15    - H25   
    16     17     18      1    1.2001e+02    5.2191e+02 ;    C16 - C17    - C18   
    17     18     19      1    1.1621e+02    5.4032e+02 ;    C17 - C18    - C19   
    17     18     26      1    1.2185e+02    3.6652e+02 ;    C17 - C18    - H26   
    18     19     27      1    1.2911e+02    3.6777e+02 ;    C18 - C19    - H27   
    19     18     26      1    1.2170e+02    3.7865e+02 ;    C19 - C18    - H26   
    23     11     28      1    1.2015e+02    3.5238e+02 ;    H23 - C11    - S28   

[ dihedrals ] ; propers
; for gromacs 4.5 or higher, using funct 9
;    i      j      k      l   func   phase     kd      pn
     1      4      5      2      9   180.00  16.73600   2 ;     S1-    C4-    C5-    S2
     1      4      5      8      9   180.00  16.73600   2 ;     S1-    C4-    C5-    C8
     1      4     17     16      9   180.00  16.73600   2 ;     S1-    C4-   C17-   C16
     1      4     17     18      9   180.00  16.73600   2 ;     S1-    C4-   C17-   C18
     1     19     18     17      9   180.00  16.73600   2 ;     S1-   C19-   C18-   C17
     1     19     18     26      9   180.00  16.73600   2 ;     S1-   C19-   C18-   H26
     2      5      4     17      9   180.00  16.73600   2 ;     S2-    C5-    C4-   C17
     2      5      8      7      9   180.00  16.73600   2 ;     S2-    C5-    C8-    C7
     2      5      8      9      9   180.00  16.73600   2 ;     S2-    C5-    C8-    C9
     2      6      7      8      9   180.00  16.73600   2 ;     S2-    C6-    C7-    C8
     2      6      7     21      9   180.00  16.73600   2 ;     S2-    C6-    C7-   H21
     3     13     12      9      9   180.00  16.73600   2 ;     S3-   C13-   C12-    C9
     3     13     12     28      9   180.00  16.73600   2 ;     S3-   C13-   C12-   S28
     3     13     16     15      9   180.00  16.73600   2 ;     S3-   C13-   C16-   C15
     3     13     16     17      9   180.00  16.73600   2 ;     S3-   C13-   C16-   C17
     3     14     15     16      9   180.00  16.73600   2 ;     S3-   C14-   C15-   C16
     3     14     15     25      9   180.00  16.73600   2 ;     S3-   C14-   C15-   H25
     4      1     19     18      9     0.00   0.00000   0 ;     C4-    S1-   C19-   C18
     4      1     19     18      9   180.00   0.00000   2 ;     C4-    S1-   C19-   C18
     4      1     19     18      9   180.00   5.27184   1 ;     C4-    S1-   C19-   C18
     4      1     19     27      9   180.00   4.60240   2 ;     C4-    S1-   C19-   H27
     4      5      2      6      9     0.00   0.00000   0 ;     C4-    C5-    S2-    C6
     4      5      2      6      9   180.00   0.00000   2 ;     C4-    C5-    S2-    C6
     4      5      2      6      9   180.00   5.27184   1 ;     C4-    C5-    S2-    C6
     4      5      8      7      9   180.00  16.73600   2 ;     C4-    C5-    C8-    C7
     4      5      8      9      9   180.00  16.73600   2 ;     C4-    C5-    C8-    C9
     4     17     16     13      9   180.00  16.73600   2 ;     C4-   C17-   C16-   C13
     4     17     16     15      9   180.00  16.73600   2 ;     C4-   C17-   C16-   C15
     4     17     18     19      9   180.00  16.73600   2 ;     C4-   C17-   C18-   C19
     4     17     18     26      9   180.00  16.73600   2 ;     C4-   C17-   C18-   H26
     5      2      6      7      9     0.00   0.00000   0 ;     C5-    S2-    C6-    C7
     5      2      6      7      9   180.00   0.00000   2 ;     C5-    S2-    C6-    C7
     5      2      6      7      9   180.00   5.27184   1 ;     C5-    S2-    C6-    C7
     5      2      6     20      9   180.00   4.60240   2 ;     C5-    S2-    C6-   H20
     5      4     17     16      9   180.00  16.73600   2 ;     C5-    C4-   C17-   C16
     5      4     17     18      9   180.00  16.73600   2 ;     C5-    C4-   C17-   C18
     5      8      7      6      9   180.00  16.73600   2 ;     C5-    C8-    C7-    C6
     5      8      7     21      9   180.00  16.73600   2 ;     C5-    C8-    C7-   H21
     5      8      9     10      9   180.00  16.73600   2 ;     C5-    C8-    C9-   C10
     5      8      9     12      9   180.00  16.73600   2 ;     C5-    C8-    C9-   C12
     6      2      5      8      9     0.00   0.00000   0 ;     C6-    S2-    C5-    C8
     6      2      5      8      9   180.00   0.00000   2 ;     C6-    S2-    C5-    C8
     6      2      5      8      9   180.00   5.27184   1 ;     C6-    S2-    C5-    C8
     6      7      8      9      9   180.00  16.73600   2 ;     C6-    C7-    C8-    C9
     7      8      9     10      9   180.00  16.73600   2 ;     C7-    C8-    C9-   C10
     7      8      9     12      9   180.00  16.73600   2 ;     C7-    C8-    C9-   C12
     8      5      4     17      9   180.00  16.73600   2 ;     C8-    C5-    C4-   C17
     8      7      6     20      9   180.00  16.73600   2 ;     C8-    C7-    C6-   H20
     8      9     10     11      9   180.00  16.73600   2 ;     C8-    C9-   C10-   C11
     8      9     10     22      9   180.00  16.73600   2 ;     C8-    C9-   C10-   H22
     8      9     12     13      9   180.00  16.73600   2 ;     C8-    C9-   C12-   C13
     8      9     12     28      9   180.00  16.73600   2 ;     C8-    C9-   C12-   S28
     9      8      7     21      9   180.00  16.73600   2 ;     C9-    C8-    C7-   H21
     9     10     11     23      9   180.00  16.73600   2 ;     C9-   C10-   C11-   H23
     9     10     11     28      9   180.00  16.73600   2 ;     C9-   C10-   C11-   S28
     9     12     13     16      9   180.00  16.73600   2 ;     C9-   C12-   C13-   C16
     9     12     28     11      9     0.00   0.00000   0 ;     C9-   C12-   S28-   C11
     9     12     28     11      9   180.00   0.00000   2 ;     C9-   C12-   S28-   C11
     9     12     28     11      9   180.00   5.27184   1 ;     C9-   C12-   S28-   C11
    10      9     12     13      9   180.00  16.73600   2 ;    C10-    C9-   C12-   C13
    10      9     12     28      9   180.00  16.73600   2 ;    C10-    C9-   C12-   S28
    10     11     28     12      9     0.00   0.00000   0 ;    C10-   C11-   S28-   C12
    10     11     28     12      9   180.00   0.00000   2 ;    C10-   C11-   S28-   C12
    10     11     28     12      9   180.00   5.27184   1 ;    C10-   C11-   S28-   C12
    11     10      9     12      9   180.00  16.73600   2 ;    C11-   C10-    C9-   C12
    11     28     12     13      9     0.00   0.00000   0 ;    C11-   S28-   C12-   C13
    11     28     12     13      9   180.00   0.00000   2 ;    C11-   S28-   C12-   C13
    11     28     12     13      9   180.00   5.27184   1 ;    C11-   S28-   C12-   C13
    12      9     10     22      9   180.00  16.73600   2 ;    C12-    C9-   C10-   H22
    12     13      3     14      9     0.00   0.00000   0 ;    C12-   C13-    S3-   C14
    12     13      3     14      9   180.00   0.00000   2 ;    C12-   C13-    S3-   C14
    12     13      3     14      9   180.00   5.27184   1 ;    C12-   C13-    S3-   C14
    12     13     16     15      9   180.00  16.73600   2 ;    C12-   C13-   C16-   C15
    12     13     16     17      9   180.00  16.73600   2 ;    C12-   C13-   C16-   C17
    12     28     11     23      9   180.00   4.60240   2 ;    C12-   S28-   C11-   H23
    13      3     14     15      9     0.00   0.00000   0 ;    C13-    S3-   C14-   C15
    13      3     14     15      9   180.00   0.00000   2 ;    C13-    S3-   C14-   C15
    13      3     14     15      9   180.00   5.27184   1 ;    C13-    S3-   C14-   C15
    13      3     14     24      9   180.00   4.60240   2 ;    C13-    S3-   C14-   H24
    13     16     15     14      9   180.00  16.73600   2 ;    C13-   C16-   C15-   C14
    13     16     15     25      9   180.00  16.73600   2 ;    C13-   C16-   C15-   H25
    13     16     17     18      9   180.00  16.73600   2 ;    C13-   C16-   C17-   C18
    14      3     13     16      9     0.00   0.00000   0 ;    C14-    S3-   C13-   C16
    14      3     13     16      9   180.00   0.00000   2 ;    C14-    S3-   C13-   C16
    14      3     13     16      9   180.00   5.27184   1 ;    C14-    S3-   C13-   C16
    14     15     16     17      9   180.00  16.73600   2 ;    C14-   C15-   C16-   C17
    15     16     17     18      9   180.00  16.73600   2 ;    C15-   C16-   C17-   C18
    16     13     12     28      9   180.00  16.73600   2 ;    C16-   C13-   C12-   S28
    16     15     14     24      9   180.00  16.73600   2 ;    C16-   C15-   C14-   H24
    16     17     18     19      9   180.00  16.73600   2 ;    C16-   C17-   C18-   C19
    16     17     18     26      9   180.00  16.73600   2 ;    C16-   C17-   C18-   H26
    17     16     15     25      9   180.00  16.73600   2 ;    C17-   C16-   C15-   H25
    17     18     19     27      9   180.00  16.73600   2 ;    C17-   C18-   C19-   H27
    19      1      4      5      9     0.00   0.00000   0 ;    C19-    S1-    C4-    C5
    19      1      4      5      9   180.00   0.00000   2 ;    C19-    S1-    C4-    C5
    19      1      4      5      9   180.00   5.27184   1 ;    C19-    S1-    C4-    C5
    19      1      4     17      9     0.00   0.00000   0 ;    C19-    S1-    C4-   C17
    19      1      4     17      9   180.00   0.00000   2 ;    C19-    S1-    C4-   C17
    19      1      4     17      9   180.00   5.27184   1 ;    C19-    S1-    C4-   C17
    20      6      7     21      9   180.00  16.73600   2 ;    H20-    C6-    C7-   H21
    22     10     11     23      9   180.00  16.73600   2 ;    H22-   C10-   C11-   H23
    22     10     11     28      9   180.00  16.73600   2 ;    H22-   C10-   C11-   S28
    24     14     15     25      9   180.00  16.73600   2 ;    H24-   C14-   C15-   H25
    26     18     19     27      9   180.00  16.73600   2 ;    H26-   C18-   C19-   H27

[ dihedrals ] ; impropers
; treated as propers in GROMACS to use correct AMBER analytical function
;    i      j      k      l   func   phase     kd      pn
     1      4     17      5      4   180.00   4.60240   2 ;     S1-    C4-   C17-    C5
     1     19     27     18      4   180.00   4.60240   2 ;     S1-   C19-   H27-   C18
     4      8      5      2      4   180.00   4.60240   2 ;     C4-    C8-    C5-    S2
     4     16     17     18      4   180.00   4.60240   2 ;     C4-   C16-   C17-   C18
     5      7      8      9      4   180.00   4.60240   2 ;     C5-    C7-    C8-    C9
     6      8      7     21      4   180.00   4.60240   2 ;     C6-    C8-    C7-   H21
     7     20      6      2      4   180.00   4.60240   2 ;     C7-   H20-    C6-    S2
    10     23     11     28      4   180.00   4.60240   2 ;    C10-   H23-   C11-   S28
    11      9     10     22      4   180.00   4.60240   2 ;    C11-    C9-   C10-   H22
    12      8      9     10      4   180.00   4.60240   2 ;    C12-    C8-    C9-   C10
    12     16     13      3      4   180.00   4.60240   2 ;    C12-   C16-   C13-    S3
    13      9     12     28      4   180.00   4.60240   2 ;    C13-    C9-   C12-   S28
    13     15     16     17      4   180.00   4.60240   2 ;    C13-   C15-   C16-   C17
    14     16     15     25      4   180.00   4.60240   2 ;    C14-   C16-   C15-   H25
    15     24     14      3      4   180.00   4.60240   2 ;    C15-   H24-   C14-    S3
    19     17     18     26      4   180.00   4.60240   2 ;    C19-   C17-   C18-   H26

[ system ]
 COT

[ molecules ]
; Compound        nmols
 COT              33
