COT_GMX.gro created by acpype (v: 2023.10.27) on Thu May 21 15:29:47 2026
 28
    1  COT   S1    1  -0.304  -0.074  -0.126
    1  COT   S2    2  -0.220  -0.176   0.181
    1  COT   S3    3   0.342  -0.028  -0.053
    1  COT   C4    4  -0.142  -0.064  -0.059
    1  COT   C5    5  -0.124  -0.069   0.084
    1  COT   C6    6  -0.171  -0.103   0.335
    1  COT   C7    7  -0.075  -0.009   0.305
    1  COT   C8    8  -0.049   0.016   0.170
    1  COT   C9    9   0.030   0.127   0.125
    1  COT  C10   10   0.011   0.257   0.181
    1  COT  C11   11   0.099   0.353   0.129
    1  COT  C12   12   0.121   0.126   0.031
    1  COT  C13   13   0.166   0.008  -0.045
    1  COT  C14   14   0.310  -0.163  -0.165
    1  COT  C15   15   0.179  -0.168  -0.198
    1  COT  C16   16   0.093  -0.067  -0.133
    1  COT  C17   17  -0.047  -0.062  -0.163
    1  COT  C18   18  -0.109  -0.087  -0.290
    1  COT  C19   19  -0.248  -0.092  -0.290
    1  COT  H20   20  -0.201  -0.148   0.413
    1  COT  H21   21  -0.044   0.069   0.388
    1  COT  H22   22  -0.057   0.288   0.258
    1  COT  H23   23   0.097   0.463   0.139
    1  COT  H24   24   0.396  -0.241  -0.180
    1  COT  H25   25   0.138  -0.237  -0.267
    1  COT  H26   26  -0.063  -0.093  -0.397
    1  COT  H27   27  -0.325  -0.106  -0.375
    1  COT  S28   28   0.197   0.281   0.003
   14.41200    14.07800    16.20600
