[ defaults ]
1 2 yes 0.5 0.833333

[ atomtypes ]
OW 8 15.9994 0.0 A 0.315075 0.635968
HW 1 1.0080 0.0 A 0.000000 0.000000

[ moleculetype ]
SOL 3

[ atoms ]
1 OW 1 SOL OW  1 -0.834 15.9994
2 HW 1 SOL HW1 1  0.417 1.0080
3 HW 1 SOL HW2 1  0.417 1.0080

[ bonds ]
1 2 1 0.09572 462750
1 3 1 0.09572 462750

[ angles ]
2 1 3 1 104.52 836.8

[ system ]
water

[ molecules ]
SOL 1
