%VERSION  VERSION_STAMP = V0001.000  DATE = 05/21/26  15:29:47                  
%FLAG TITLE                                                                     
%FORMAT(20a4)                                                                   
COT                                                                             
%FLAG POINTERS                                                                  
%FORMAT(10I8)                                                                   
      28       4       8      24      16      36      32      88       0       0
     148       1      24      36      88       6      10       6       5       0
       0       0       0       0       0       0       0       0      28       0
       0
%FLAG ATOM_NAME                                                                 
%FORMAT(20a4)                                                                   
S1  S2  S3  C4  C5  C6  C7  C8  C9  C10 C11 C12 C13 C14 C15 C16 C17 C18 C19 H20 
H21 H22 H23 H24 H25 H26 H27 S28 
%FLAG CHARGE                                                                    
%FORMAT(5E16.8)                                                                 
  4.04535060E-01  4.04535060E-01  4.04535060E-01 -3.48045930E-01 -3.48045930E-01
 -3.09961323E+00 -2.56934430E+00 -3.82668300E-01 -3.82668300E-01 -2.56934430E+00
 -3.09961323E+00 -3.48045930E-01 -3.48045930E-01 -3.09961323E+00 -2.56934430E+00
 -3.82668300E-01 -3.82668300E-01 -2.56934430E+00 -3.09961323E+00  3.13423560E+00
  2.86090110E+00  2.86090110E+00  3.13423560E+00  3.13423560E+00  2.86090110E+00
  2.86090110E+00  3.13423560E+00  4.04535060E-01
%FLAG ATOMIC_NUMBER                                                             
%FORMAT(10I8)                                                                   
      16      16      16       6       6       6       6       6       6       6
       6       6       6       6       6       6       6       6       6       1
       1       1       1       1       1       1       1      16
%FLAG MASS                                                                      
%FORMAT(5E16.8)                                                                 
  3.20600000E+01  3.20600000E+01  3.20600000E+01  1.20100000E+01  1.20100000E+01
  1.20100000E+01  1.20100000E+01  1.20100000E+01  1.20100000E+01  1.20100000E+01
  1.20100000E+01  1.20100000E+01  1.20100000E+01  1.20100000E+01  1.20100000E+01
  1.20100000E+01  1.20100000E+01  1.20100000E+01  1.20100000E+01  1.00800000E+00
  1.00800000E+00  1.00800000E+00  1.00800000E+00  1.00800000E+00  1.00800000E+00
  1.00800000E+00  1.00800000E+00  3.20600000E+01
%FLAG ATOM_TYPE_INDEX                                                           
%FORMAT(10I8)                                                                   
       1       1       1       2       2       2       2       2       2       2
       2       2       2       2       2       2       2       2       2       3
       4       4       3       3       4       4       3       1
%FLAG NUMBER_EXCLUDED_ATOMS                                                     
%FORMAT(10I8)                                                                   
      10       9      10      13      12       5       6      10       9       6
       5       8       8       5       5       7       5       3       2       1
       1       2       1       1       1       1       1       1
%FLAG NONBONDED_PARM_INDEX                                                      
%FORMAT(10I8)                                                                   
       1       2       4       7       2       3       5       8       4       5
       6       9       7       8       9      10
%FLAG RESIDUE_LABEL                                                             
%FORMAT(20a4)                                                                   
COT 
%FLAG RESIDUE_POINTER                                                           
%FORMAT(10I8)                                                                   
       1
%FLAG BOND_FORCE_CONSTANT                                                       
%FORMAT(5E16.8)                                                                 
  2.31660000E+02  3.22020000E+02  3.86240000E+02  3.68720000E+02  3.21490000E+02
  3.64600000E+02
%FLAG BOND_EQUIL_VALUE                                                          
%FORMAT(5E16.8)                                                                 
  1.75380000E+00  1.42740000E+00  1.37300000E+00  1.08090000E+00  1.42790000E+00
  1.08350000E+00
%FLAG ANGLE_FORCE_CONSTANT                                                      
%FORMAT(5E16.8)                                                                 
  6.33300000E+01  6.66200000E+01  4.21100000E+01  1.02140000E+02  6.37700000E+01
  6.45700000E+01  4.52500000E+01  4.39500000E+01  6.23700000E+01  4.38000000E+01
%FLAG ANGLE_EQUIL_VALUE                                                         
%FORMAT(5E16.8)                                                                 
  2.11778342E+00  1.94691562E+00  2.09701400E+00  1.57708019E+00  2.08025883E+00
  2.02824799E+00  2.12406661E+00  2.25339556E+00  2.09457053E+00  2.12668460E+00
%FLAG DIHEDRAL_FORCE_CONSTANT                                                   
%FORMAT(5E16.8)                                                                 
  4.00000000E+00  1.26000000E+00  0.00000000E+00  0.00000000E+00  1.10000000E+00
  1.10000000E+00
%FLAG DIHEDRAL_PERIODICITY                                                      
%FORMAT(5E16.8)                                                                 
  2.00000000E+00  1.00000000E+00  2.00000000E+00  3.00000000E+00  2.00000000E+00
  2.00000000E+00
%FLAG DIHEDRAL_PHASE                                                            
%FORMAT(5E16.8)                                                                 
  3.14159400E+00  3.14159400E+00  3.14159400E+00  0.00000000E+00  3.14159400E+00
  3.14159400E+00
%FLAG SCEE_SCALE_FACTOR                                                         
%FORMAT(5E16.8)                                                                 
  1.20000000E+00  1.20000000E+00  1.20000000E+00  1.20000000E+00  1.20000000E+00
  0.00000000E+00
%FLAG SCNB_SCALE_FACTOR                                                         
%FORMAT(5E16.8)                                                                 
  2.00000000E+00  2.00000000E+00  2.00000000E+00  2.00000000E+00  2.00000000E+00
  0.00000000E+00
%FLAG SOLTY                                                                     
%FORMAT(5E16.8)                                                                 
  0.00000000E+00  0.00000000E+00  0.00000000E+00  0.00000000E+00  0.00000000E+00
%FLAG LENNARD_JONES_ACOEF                                                       
%FORMAT(5E16.8)                                                                 
  4.26366419E+06  1.73376823E+06  6.96551276E+05  1.64354276E+05  6.27751680E+04
  4.56536476E+03  1.95762765E+05  7.52549148E+04  5.62610481E+03  6.90855956E+03
%FLAG LENNARD_JONES_BCOEF                                                       
%FORMAT(5E16.8)                                                                 
  2.19459223E+03  1.07629402E+03  5.24668528E+02  2.10544132E+02  1.00073628E+02
  1.71467049E+01  2.29782888E+02  1.09570372E+02  1.90347353E+01  2.10929191E+01
%FLAG BONDS_INC_HYDROGEN                                                        
%FORMAT(10I8)                                                                   
      15      57       4      18      60       6      27      63       6      30
      66       4      39      69       4      42      72       6      51      75
       6      54      78       4
%FLAG BONDS_WITHOUT_HYDROGEN                                                    
%FORMAT(10I8)                                                                   
       0       9       1       0      54       1       3      12       1       3
      15       1       6      36       1       6      39       1       9      12
       2       9      48       3      12      21       3      15      18       3
      18      21       5      21      24       5      24      27       5      24
      33       3      27      30       3      30      81       1      33      36
       2      33      81       1      36      45       3      39      42       3
      42      45       5      45      48       5      48      51       5      51
      54       3
%FLAG ANGLES_INC_HYDROGEN                                                       
%FORMAT(10I8)                                                                   
       0      54      78       3       3      15      57       3       6      39
      69       3      15      18      60       7      18      15      57       8
      21      18      60      10      24      27      63      10      27      30
      66       8      30      27      63       7      39      42      72       7
      42      39      69       8      45      42      72      10      48      51
      75      10      51      54      78       8      54      51      75       7
      66      30      81       3
%FLAG ANGLES_WITHOUT_HYDROGEN                                                   
%FORMAT(10I8)                                                                   
       0       9      12       1       0       9      48       2       0      54
      51       2       3      12       9       1       3      12      21       2
       3      15      18       2       6      36      33       1       6      36
      45       2       6      39      42       2       9       0      54       4
       9      12      21       5       9      48      45       6       9      48
      51       6      12       3      15       4      12       9      48       5
      12      21      18       6      12      21      24       6      15      18
      21       6      18      21      24       9      21      24      27       9
      21      24      33       6      24      27      30       6      24      33
      36       5      24      33      81       2      27      24      33       6
      27      30      81       2      30      81      33       4      33      36
      45       5      36       6      39       4      36      33      81       1
      36      45      42       6      36      45      48       6      39      42
      45       6      42      45      48       9      45      48      51       9
      48      51      54       6
%FLAG DIHEDRALS_INC_HYDROGEN                                                    
%FORMAT(10I8)                                                                   
       0      54      51      75       1       3      15      18      60       1
       6      39      42      72       1       9       0      54      78       5
       9      48      51      75       1      12       3      15      57       5
      12      21      18      60       1      21      18      15      57       1
      21      24      27      63       1      24      21      18      60       1
      24      27      30      66       1      33      24      27      63       1
      33      81      30      66       5      36       6      39      69       5
      36      45      42      72       1      45      42      39      69       1
      45      48      51      75       1      48      45      42      72       1
      48      51      54      78       1      57      15      18      60       1
      63      27      30      66       1      63      27      30      81       1
      69      39      42      72       1      75      51      54      78       1
      18      57     -15      -3       6      15      21     -18     -60       6
      30      24     -27     -63       6      27      66     -30     -81       6
      42      69     -39      -6       6      39      45     -42     -72       6
      54      48     -51     -75       6       0      54     -78     -51       6
%FLAG DIHEDRALS_WITHOUT_HYDROGEN                                                
%FORMAT(10I8)                                                                   
       0       9      12       3       1       0       9      12      21       1
       0       9      48      45       1       0       9     -48      51       1
       0      54     -51      48       1       3      12       9      48       1
       3      12     -21      18       1       3      12      21      24       1
       3      15     -18      21       1       6      36      33      24       1
       6      36      33      81       1       6      36     -45      42       1
       6      36      45      48       1       6      39     -42      45       1
       9       0     -54      51       2       9       0     -54      51       3
       9       0     -54      51       4       9      12       3      15       2
       9      12      -3      15       3       9      12      -3      15       4
       9      12      21      18       1       9      12      21      24       1
       9      48      45      36       1       9      48      45      42       1
       9      48     -51      54       1      12       3     -15      18       2
      12       3     -15      18       3      12       3     -15      18       4
      54       0       9      12       2      54       0      -9      12       3
      54       0      -9      12       4      12       9      48      45       1
      12       9      48      51       1      12      21     -18      15       1
      12      21      24      27       1      12      21      24      33       1
      15       3     -12      21       2      15       3     -12      21       3
      15       3     -12      21       4      15      18      21      24       1
      18      21      24      27       1      18      21      24      33       1
      21      12       9      48       1      21      24      27      30       1
      21      24      33      36       1      21      24      33      81       1
      24      27     -30      81       1      24      33      36      45       1
      24      33     -81      30       2      24      33     -81      30       3
      24      33     -81      30       4      27      24      33      36       1
      27      24     -33      81       1      27      30     -81      33       2
      27      30     -81      33       3      27      30     -81      33       4
      30      27     -24      33       1      30      81      33      36       2
      30      81     -33      36       3      30      81     -33      36       4
      33      36       6      39       2      33      36      -6      39       3
      33      36      -6      39       4      33      36      45      42       1
      33      36      45      48       1      36       6     -39      42       2
      36       6     -39      42       3      36       6     -39      42       4
      36      45     -42      39       1      36      45      48      51       1
      39       6     -36      45       2      39       6     -36      45       3
      39       6     -36      45       4      39      42      45      48       1
      42      45      48      51       1      45      36      33      81       1
      45      48      51      54       1      54       0      -9      48       2
      54       0      -9      48       3      54       0      -9      48       4
       0       9     -48     -12       6       9      21     -12      -3       6
      12      18     -21     -24       6      33      21     -24     -27       6
      36      24     -33     -81       6      33      45     -36      -6       6
      36      42     -45     -48       6       9      45     -48     -51       6
%FLAG EXCLUDED_ATOMS_LIST                                                       
%FORMAT(10I8)                                                                   
       2       4       5       8      16      17      18      19      26      27
       4       5       6       7       8       9      17      20      21       9
      12      13      14      15      16      17      24      25      28       5
       6       7       8       9      13      15      16      17      18      19
      26      27       6       7       8       9      10      12      16      17
      18      19      20      21       7       8       9      20      21       8
       9      10      12      20      21       9      10      11      12      13
      17      20      21      22      28      10      11      12      13      16
      21      22      23      28      11      12      13      22      23      28
      12      13      22      23      28      13      14      15      16      17
      22      23      28      14      15      16      17      18      24      25
      28      15      16      17      24      25      16      17      18      24
      25      17      18      19      24      25      26      28      18      19
      25      26      27      19      26      27      26      27      21       0
      23      28      28      25       0      27       0       0
%FLAG HBOND_ACOEF                                                               
%FORMAT(5E16.8)                                                                 

%FLAG HBOND_BCOEF                                                               
%FORMAT(5E16.8)                                                                 

%FLAG HBCUT                                                                     
%FORMAT(5E16.8)                                                                 

%FLAG AMBER_ATOM_TYPE                                                           
%FORMAT(20a4)                                                                   
ss  ss  ss  cc  cc  cc  cd  cd  cd  cd  cc  cc  cc  cc  cd  cd  cd  cd  cc  h4  
ha  ha  h4  h4  ha  ha  h4  ss  
%FLAG TREE_CHAIN_CLASSIFICATION                                                 
%FORMAT(20a4)                                                                   
BLA BLA BLA BLA BLA BLA BLA BLA BLA BLA BLA BLA BLA BLA BLA BLA BLA BLA BLA BLA 
BLA BLA BLA BLA BLA BLA BLA BLA 
%FLAG JOIN_ARRAY                                                                
%FORMAT(10I8)                                                                   
       0       0       0       0       0       0       0       0       0       0
       0       0       0       0       0       0       0       0       0       0
       0       0       0       0       0       0       0       0
%FLAG IROTAT                                                                    
%FORMAT(10I8)                                                                   
       0       0       0       0       0       0       0       0       0       0
       0       0       0       0       0       0       0       0       0       0
       0       0       0       0       0       0       0       0
%FLAG RADIUS_SET                                                                
%FORMAT(1a80)                                                                   
modified Bondi radii (mbondi)                                                   
%FLAG RADII                                                                     
%FORMAT(5E16.8)                                                                 
  1.80000000E+00  1.80000000E+00  1.80000000E+00  1.70000000E+00  1.70000000E+00
  1.70000000E+00  1.70000000E+00  1.70000000E+00  1.70000000E+00  1.70000000E+00
  1.70000000E+00  1.70000000E+00  1.70000000E+00  1.70000000E+00  1.70000000E+00
  1.70000000E+00  1.70000000E+00  1.70000000E+00  1.70000000E+00  1.30000000E+00
  1.30000000E+00  1.30000000E+00  1.30000000E+00  1.30000000E+00  1.30000000E+00
  1.30000000E+00  1.30000000E+00  1.80000000E+00
%FLAG SCREEN                                                                    
%FORMAT(5E16.8)                                                                 
  9.60000000E-01  9.60000000E-01  9.60000000E-01  7.20000000E-01  7.20000000E-01
  7.20000000E-01  7.20000000E-01  7.20000000E-01  7.20000000E-01  7.20000000E-01
  7.20000000E-01  7.20000000E-01  7.20000000E-01  7.20000000E-01  7.20000000E-01
  7.20000000E-01  7.20000000E-01  7.20000000E-01  7.20000000E-01  8.50000000E-01
  8.50000000E-01  8.50000000E-01  8.50000000E-01  8.50000000E-01  8.50000000E-01
  8.50000000E-01  8.50000000E-01  9.60000000E-01
%FLAG IPOL                                                                      
%FORMAT(1I8)                                                                    
       0
