COT
    28
  -3.0370000  -0.7450000  -1.2570000  -2.2000000  -1.7600000   1.8060000
   3.4190000  -0.2820000  -0.5260000  -1.4230000  -0.6350000  -0.5870000
  -1.2370000  -0.6940000   0.8370000  -1.7130000  -1.0320000   3.3460000
  -0.7490000  -0.0850000   3.0520000  -0.4880000   0.1560000   1.6950000
   0.2990000   1.2700000   1.2480000   0.1060000   2.5650000   1.8120000
   0.9910000   3.5330000   1.2880000   1.2050000   1.2550000   0.3130000
   1.6630000   0.0820000  -0.4480000   3.1030000  -1.6300000  -1.6530000
   1.7950000  -1.6750000  -1.9760000   0.9290000  -0.6730000  -1.3290000
  -0.4720000  -0.6220000  -1.6310000  -1.0930000  -0.8740000  -2.9000000
  -2.4810000  -0.9190000  -2.9040000  -2.0100000  -1.4780000   4.1310000
  -0.4430000   0.6900000   3.8800000  -0.5660000   2.8810000   2.5780000
   0.9680000   4.6330000   1.3890000   3.9580000  -2.4060000  -1.7980000
   1.3800000  -2.3730000  -2.6710000  -0.6300000  -0.9320000  -3.9720000
  -3.2480000  -1.0620000  -3.7530000   1.9740000   2.8130000   0.0320000
