integrator = md
nsteps = 200
dt = 0.0005
continuation = no
nstxout = 1
nstvout = 1
nstfout = 1
nstenergy = 1
nstcalcenergy = 1
cutoff-scheme = Verlet
rlist = 1.0
coulombtype = Cut-off
rcoulomb = 1.0
vdwtype = Cut-off
rvdw = 1.0
pbc = xyz
constraints = none
gen_vel = yes
gen_temp = 298.15
gen_seed = 1
